<?xml version="1.0" encoding="UTF-8"?>

<!-- generated on 2024-05-12 09:15:52 by Eclipse SUMO GUI Version 1.19.0
<configuration xmlns:xsi="http://www.w3.org/2001/XMLSchema-instance" xsi:noNamespaceSchemaLocation="http://sumo.dlr.de/xsd/sumoConfiguration.xsd">

    <input>
        <net-file value="maps/city1.net.xml"/>
        <route-files value="maps/city1.rou.xml"/>
    </input>

    <output>
        <tripinfo-output value="maps/city3.rou.xml"/>
    </output>

    <time>
        <begin value="0"/>
        <end value="200"/>
    </time>

    <report>
        <verbose value="true"/>
        <no-step-log value="true"/>
    </report>

    <traci_server>
        <remote-port value="56995"/>
    </traci_server>

</configuration>
-->

<tripinfos xmlns:xsi="http://www.w3.org/2001/XMLSchema-instance" xsi:noNamespaceSchemaLocation="http://sumo.dlr.de/xsd/tripinfo_file.xsd">
    <tripinfo id="13" depart="13.00" departLane="-gneE14_0" departPos="5.10" departSpeed="0.00" departDelay="0.00" arrival="23.00" arrivalLane="-gneE14_0" arrivalPos="89.60" arrivalSpeed="14.27" duration="10.00" routeLength="84.50" waitingTime="0.00" waitingCount="0" stopTime="0.00" timeLoss="3.61" rerouteNo="0" devices="tripinfo_13" vType="DEFAULT_VEHTYPE" speedFactor="1.09" vaporized=""/>
    <tripinfo id="4" depart="4.00" departLane="-gneE5_0" departPos="5.10" departSpeed="0.00" departDelay="0.00" arrival="61.00" arrivalLane="-gneE1_0" arrivalPos="85.60" arrivalSpeed="12.89" duration="57.00" routeLength="374.92" waitingTime="17.00" waitingCount="1" stopTime="0.00" timeLoss="28.38" rerouteNo="0" devices="tripinfo_4" vType="DEFAULT_VEHTYPE" speedFactor="1.01" vaporized=""/>
    <tripinfo id="17" depart="17.00" departLane="-gneE36_0" departPos="5.10" departSpeed="0.00" departDelay="0.00" arrival="79.00" arrivalLane="gneE12_0" arrivalPos="85.60" arrivalSpeed="9.79" duration="62.00" routeLength="687.49" waitingTime="3.00" waitingCount="1" stopTime="0.00" timeLoss="17.05" rerouteNo="0" devices="tripinfo_17" vType="DEFAULT_VEHTYPE" speedFactor="1.12" vaporized=""/>
    <tripinfo id="27" depart="27.00" departLane="gneE19_0" departPos="5.10" departSpeed="0.00" departDelay="0.00" arrival="80.00" arrivalLane="gneE17_0" arrivalPos="92.80" arrivalSpeed="14.84" duration="53.00" routeLength="585.39" waitingTime="0.00" waitingCount="0" stopTime="0.00" timeLoss="14.08" rerouteNo="0" devices="tripinfo_27" vType="DEFAULT_VEHTYPE" speedFactor="1.16" vaporized=""/>
    <tripinfo id="19" depart="19.00" departLane="gneE35_0" departPos="5.10" departSpeed="0.00" departDelay="0.00" arrival="87.00" arrivalLane="gneE13_0" arrivalPos="92.80" arrivalSpeed="13.35" duration="68.00" routeLength="789.32" waitingTime="0.00" waitingCount="0" stopTime="0.00" timeLoss="8.75" rerouteNo="0" devices="tripinfo_19" vType="DEFAULT_VEHTYPE" speedFactor="0.99" vaporized=""/>
    <tripinfo id="30" depart="30.00" departLane="gneE9_0" departPos="5.10" departSpeed="0.00" departDelay="0.00" arrival="87.00" arrivalLane="gneE2_0" arrivalPos="185.60" arrivalSpeed="6.82" duration="57.00" routeLength="379.13" waitingTime="16.00" waitingCount="1" stopTime="0.00" timeLoss="28.29" rerouteNo="0" devices="tripinfo_30" vType="DEFAULT_VEHTYPE" speedFactor="0.97" vaporized=""/>
    <tripinfo id="90" depart="90.00" departLane="gneE23_0" departPos="5.10" departSpeed="0.00" departDelay="0.00" arrival="100.00" arrivalLane="gneE23_0" arrivalPos="89.60" arrivalSpeed="13.60" duration="10.00" routeLength="84.50" waitingTime="0.00" waitingCount="0" stopTime="0.00" timeLoss="3.22" rerouteNo="0" devices="tripinfo_90" vType="DEFAULT_VEHTYPE" speedFactor="1.02" vaporized=""/>
    <tripinfo id="16" depart="16.00" departLane="gneE10_0" departPos="5.10" departSpeed="0.00" departDelay="0.00" arrival="112.00" arrivalLane="gneE8_0" arrivalPos="85.60" arrivalSpeed="13.58" duration="96.00" routeLength="683.97" waitingTime="24.00" waitingCount="3" stopTime="0.00" timeLoss="46.47" rerouteNo="0" devices="tripinfo_16" vType="DEFAULT_VEHTYPE" speedFactor="1.05" vaporized=""/>
    <tripinfo id="63" depart="63.00" departLane="-gneE10_0" departPos="5.10" departSpeed="0.00" departDelay="0.00" arrival="117.00" arrivalLane="gneE5_0" arrivalPos="85.60" arrivalSpeed="12.79" duration="54.00" routeLength="573.14" waitingTime="0.00" waitingCount="0" stopTime="0.00" timeLoss="11.18" rerouteNo="0" devices="tripinfo_63" vType="DEFAULT_VEHTYPE" speedFactor="1.00" vaporized=""/>
    <tripinfo id="9" depart="9.00" departLane="gneE3_0" departPos="5.10" departSpeed="0.00" departDelay="0.00" arrival="120.00" arrivalLane="-gneE0_0" arrivalPos="92.80" arrivalSpeed="11.76" duration="111.00" routeLength="671.38" waitingTime="34.00" waitingCount="2" stopTime="0.00" timeLoss="52.74" rerouteNo="0" devices="tripinfo_9" vType="DEFAULT_VEHTYPE" speedFactor="0.89" vaporized=""/>
    <tripinfo id="86" depart="86.00" departLane="-gneE8_0" departPos="5.10" departSpeed="0.00" departDelay="0.00" arrival="124.00" arrivalLane="gneE3_0" arrivalPos="185.60" arrivalSpeed="11.09" duration="38.00" routeLength="375.13" waitingTime="0.00" waitingCount="0" stopTime="0.00" timeLoss="6.00" rerouteNo="0" devices="tripinfo_86" vType="DEFAULT_VEHTYPE" speedFactor="0.88" vaporized=""/>
    <tripinfo id="25" depart="25.00" departLane="-gneE34_0" departPos="5.10" departSpeed="0.00" departDelay="0.00" arrival="128.00" arrivalLane="-gneE22_0" arrivalPos="85.60" arrivalSpeed="9.04" duration="103.00" routeLength="580.18" waitingTime="31.00" waitingCount="3" stopTime="0.00" timeLoss="57.08" rerouteNo="0" devices="tripinfo_25" vType="DEFAULT_VEHTYPE" speedFactor="0.94" vaporized=""/>
    <tripinfo id="5" depart="5.00" departLane="-gneE25_0" departPos="5.10" departSpeed="0.00" departDelay="0.00" arrival="132.00" arrivalLane="gneE1_0" arrivalPos="85.60" arrivalSpeed="5.57" duration="127.00" routeLength="774.81" waitingTime="51.00" waitingCount="3" stopTime="0.00" timeLoss="73.30" rerouteNo="0" devices="tripinfo_5" vType="DEFAULT_VEHTYPE" speedFactor="1.08" vaporized=""/>
    <tripinfo id="53" depart="53.00" departLane="-gneE18_0" departPos="5.10" departSpeed="0.00" departDelay="0.00" arrival="132.00" arrivalLane="-gneE5_0" arrivalPos="85.60" arrivalSpeed="6.14" duration="79.00" routeLength="275.23" waitingTime="43.00" waitingCount="2" stopTime="0.00" timeLoss="55.83" rerouteNo="0" devices="tripinfo_53" vType="DEFAULT_VEHTYPE" speedFactor="0.90" vaporized=""/>
    <tripinfo id="43" depart="43.00" departLane="gneE9_0" departPos="5.10" departSpeed="0.00" departDelay="0.00" arrival="135.00" arrivalLane="gneE1_0" arrivalPos="85.60" arrivalSpeed="8.25" duration="92.00" routeLength="778.50" waitingTime="12.00" waitingCount="3" stopTime="0.00" timeLoss="41.55" rerouteNo="0" devices="tripinfo_43" vType="DEFAULT_VEHTYPE" speedFactor="1.18" vaporized=""/>
    <tripinfo id="88" depart="89.00" departLane="-gneE17_0" departPos="5.10" departSpeed="0.00" departDelay="1.00" arrival="137.00" arrivalLane="-gneE5_0" arrivalPos="85.60" arrivalSpeed="9.73" duration="48.00" routeLength="182.33" waitingTime="22.00" waitingCount="1" stopTime="0.00" timeLoss="31.92" rerouteNo="0" devices="tripinfo_88" vType="DEFAULT_VEHTYPE" speedFactor="0.91" vaporized=""/>
    <tripinfo id="8" depart="8.00" departLane="-gneE26_0" departPos="5.10" departSpeed="0.00" departDelay="0.00" arrival="139.00" arrivalLane="gneE14_0" arrivalPos="89.60" arrivalSpeed="14.15" duration="131.00" routeLength="391.59" waitingTime="87.00" waitingCount="2" stopTime="0.00" timeLoss="103.23" rerouteNo="0" devices="tripinfo_8" vType="DEFAULT_VEHTYPE" speedFactor="1.05" vaporized=""/>
    <tripinfo id="56" depart="56.00" departLane="gneE0_0" departPos="5.10" departSpeed="0.00" departDelay="0.00" arrival="139.00" arrivalLane="-gneE20_0" arrivalPos="92.80" arrivalSpeed="13.95" duration="83.00" routeLength="284.16" waitingTime="52.00" waitingCount="1" stopTime="0.00" timeLoss="63.03" rerouteNo="0" devices="tripinfo_56" vType="DEFAULT_VEHTYPE" speedFactor="1.09" vaporized=""/>
    <tripinfo id="127" depart="130.00" departLane="gneE9_0" departPos="5.10" departSpeed="0.00" departDelay="3.00" arrival="140.00" arrivalLane="gneE9_0" arrivalPos="89.60" arrivalSpeed="11.67" duration="10.00" routeLength="84.50" waitingTime="0.00" waitingCount="0" stopTime="0.00" timeLoss="2.92" rerouteNo="0" devices="tripinfo_127" vType="DEFAULT_VEHTYPE" speedFactor="0.91" vaporized=""/>
    <tripinfo id="49" depart="49.00" departLane="gneE8_0" departPos="5.10" departSpeed="0.00" departDelay="0.00" arrival="153.00" arrivalLane="gneE34_0" arrivalPos="85.60" arrivalSpeed="12.90" duration="104.00" routeLength="781.73" waitingTime="30.00" waitingCount="2" stopTime="0.00" timeLoss="47.52" rerouteNo="0" devices="tripinfo_49" vType="DEFAULT_VEHTYPE" speedFactor="1.02" vaporized=""/>
    <tripinfo id="70" depart="71.00" departLane="-gneE8_0" departPos="5.10" departSpeed="0.00" departDelay="1.00" arrival="154.00" arrivalLane="gneE12_0" arrivalPos="85.60" arrivalSpeed="7.57" duration="83.00" routeLength="469.76" waitingTime="32.00" waitingCount="1" stopTime="0.00" timeLoss="48.47" rerouteNo="0" devices="tripinfo_70" vType="DEFAULT_VEHTYPE" speedFactor="1.02" vaporized=""/>
    <tripinfo id="2" depart="2.00" departLane="gneE24_0" departPos="5.10" departSpeed="0.00" departDelay="0.00" arrival="156.00" arrivalLane="gneE23_0" arrivalPos="89.60" arrivalSpeed="12.87" duration="154.00" routeLength="768.59" waitingTime="67.00" waitingCount="3" stopTime="0.00" timeLoss="92.09" rerouteNo="0" devices="tripinfo_2" vType="DEFAULT_VEHTYPE" speedFactor="0.94" vaporized=""/>
    <tripinfo id="33" depart="33.00" departLane="-gneE26_0" departPos="5.10" departSpeed="0.00" departDelay="0.00" arrival="156.00" arrivalLane="-gneE10_0" arrivalPos="96.80" arrivalSpeed="11.00" duration="123.00" routeLength="491.90" waitingTime="69.00" waitingCount="1" stopTime="0.00" timeLoss="79.65" rerouteNo="0" devices="tripinfo_33" vType="DEFAULT_VEHTYPE" speedFactor="0.83" vaporized=""/>
    <tripinfo id="6" depart="6.00" departLane="-gneE10_0" departPos="5.10" departSpeed="0.00" departDelay="0.00" arrival="157.00" arrivalLane="-gneE21_0" arrivalPos="87.62" arrivalSpeed="13.91" duration="151.00" routeLength="780.42" waitingTime="67.00" waitingCount="2" stopTime="0.00" timeLoss="94.84" rerouteNo="0" devices="tripinfo_6" vType="DEFAULT_VEHTYPE" speedFactor="1.03" vaporized=""/>
    <tripinfo id="7" depart="7.00" departLane="gneE19_0" departPos="5.10" departSpeed="0.00" departDelay="0.00" arrival="158.00" arrivalLane="gneE11_0" arrivalPos="92.80" arrivalSpeed="10.97" duration="151.00" routeLength="678.58" waitingTime="67.00" waitingCount="3" stopTime="0.00" timeLoss="88.60" rerouteNo="0" devices="tripinfo_7" vType="DEFAULT_VEHTYPE" speedFactor="0.83" vaporized=""/>
    <tripinfo id="20" depart="20.00" departLane="gneE22_0" departPos="5.10" departSpeed="0.00" departDelay="0.00" arrival="158.00" arrivalLane="-gneE10_0" arrivalPos="96.80" arrivalSpeed="11.76" duration="138.00" routeLength="579.33" waitingTime="75.00" waitingCount="2" stopTime="0.00" timeLoss="91.76" rerouteNo="0" devices="tripinfo_20" vType="DEFAULT_VEHTYPE" speedFactor="0.93" vaporized=""/>
    <tripinfo id="138" depart="138.00" departLane="-gneE17_0" departPos="5.10" departSpeed="0.00" departDelay="0.00" arrival="158.00" arrivalLane="gneE12_0" arrivalPos="85.60" arrivalSpeed="13.50" duration="20.00" routeLength="187.49" waitingTime="0.00" waitingCount="0" stopTime="0.00" timeLoss="5.04" rerouteNo="0" devices="tripinfo_138" vType="DEFAULT_VEHTYPE" speedFactor="1.01" vaporized=""/>
    <tripinfo id="85" depart="86.00" departLane="gneE5_0" departPos="5.10" departSpeed="0.00" departDelay="1.00" arrival="160.00" arrivalLane="gneE13_0" arrivalPos="92.80" arrivalSpeed="12.59" duration="74.00" routeLength="287.49" waitingTime="40.00" waitingCount="1" stopTime="0.00" timeLoss="50.32" rerouteNo="0" devices="tripinfo_85" vType="DEFAULT_VEHTYPE" speedFactor="0.94" vaporized=""/>
    <tripinfo id="31" depart="31.00" departLane="gneE11_0" departPos="5.10" departSpeed="0.00" departDelay="0.00" arrival="161.00" arrivalLane="gneE23_0" arrivalPos="89.60" arrivalSpeed="11.86" duration="130.00" routeLength="875.51" waitingTime="38.00" waitingCount="1" stopTime="0.00" timeLoss="57.31" rerouteNo="0" devices="tripinfo_31" vType="DEFAULT_VEHTYPE" speedFactor="0.89" vaporized=""/>
    <tripinfo id="60" depart="60.00" departLane="gneE25_0" departPos="5.10" departSpeed="0.00" departDelay="0.00" arrival="161.00" arrivalLane="gneE11_0" arrivalPos="92.80" arrivalSpeed="13.93" duration="101.00" routeLength="589.00" waitingTime="39.00" waitingCount="1" stopTime="0.00" timeLoss="58.65" rerouteNo="0" devices="tripinfo_60" vType="DEFAULT_VEHTYPE" speedFactor="1.09" vaporized=""/>
    <tripinfo id="35" depart="38.00" departLane="-gneE25_0" departPos="5.10" departSpeed="0.00" departDelay="3.00" arrival="163.00" arrivalLane="gneE6_0" arrivalPos="92.80" arrivalSpeed="11.53" duration="125.00" routeLength="477.06" waitingTime="70.00" waitingCount="1" stopTime="0.00" timeLoss="83.14" rerouteNo="0" devices="tripinfo_35" vType="DEFAULT_VEHTYPE" speedFactor="0.87" vaporized=""/>
    <tripinfo id="47" depart="50.00" departLane="-gneE13_0" departPos="5.10" departSpeed="0.00" departDelay="3.00" arrival="166.00" arrivalLane="-gneE38_0" arrivalPos="296.80" arrivalSpeed="16.07" duration="116.00" routeLength="490.87" waitingTime="69.00" waitingCount="1" stopTime="0.00" timeLoss="84.76" rerouteNo="0" devices="tripinfo_47" vType="DEFAULT_VEHTYPE" speedFactor="1.17" vaporized=""/>
    <tripinfo id="148" depart="148.00" departLane="-gneE5_0" departPos="5.10" departSpeed="0.00" departDelay="0.00" arrival="187.00" arrivalLane="-gneE0_0" arrivalPos="92.80" arrivalSpeed="14.94" duration="39.00" routeLength="487.49" waitingTime="0.00" waitingCount="0" stopTime="0.00" timeLoss="5.47" rerouteNo="0" devices="tripinfo_148" vType="DEFAULT_VEHTYPE" speedFactor="1.10" vaporized=""/>
    <tripinfo id="73" depart="73.00" departLane="gneE10_0" departPos="5.10" departSpeed="0.00" departDelay="0.00" arrival="188.00" arrivalLane="gneE26_0" arrivalPos="92.80" arrivalSpeed="12.68" duration="115.00" routeLength="491.90" waitingTime="62.00" waitingCount="2" stopTime="0.00" timeLoss="78.78" rerouteNo="0" devices="tripinfo_73" vType="DEFAULT_VEHTYPE" speedFactor="1.00" vaporized=""/>
    <tripinfo id="117" depart="117.00" departLane="-gneE27_0" departPos="5.10" departSpeed="0.00" departDelay="0.00" arrival="192.00" arrivalLane="-gneE17_0" arrivalPos="92.80" arrivalSpeed="11.38" duration="75.00" routeLength="387.59" waitingTime="35.00" waitingCount="1" stopTime="0.00" timeLoss="46.57" rerouteNo="0" devices="tripinfo_117" vType="DEFAULT_VEHTYPE" speedFactor="1.02" vaporized=""/>
    <tripinfo id="164" depart="164.00" departLane="gneE3_0" departPos="5.10" departSpeed="0.00" departDelay="0.00" arrival="192.00" arrivalLane="gneE34_0" arrivalPos="85.60" arrivalSpeed="8.33" duration="28.00" routeLength="280.29" waitingTime="0.00" waitingCount="0" stopTime="0.00" timeLoss="8.82" rerouteNo="0" devices="tripinfo_164" vType="DEFAULT_VEHTYPE" speedFactor="1.10" vaporized=""/>
    <tripinfo id="52" depart="52.00" departLane="-gneE29_0" departPos="5.10" departSpeed="0.00" departDelay="0.00" arrival="199.00" arrivalLane="gneE21_0" arrivalPos="87.62" arrivalSpeed="8.60" duration="147.00" routeLength="413.15" waitingTime="104.00" waitingCount="1" stopTime="0.00" timeLoss="118.51" rerouteNo="0" devices="tripinfo_52" vType="DEFAULT_VEHTYPE" speedFactor="1.10" vaporized=""/>
    <tripinfo id="179" depart="179.00" departLane="-gneE17_0" departPos="5.10" departSpeed="0.00" departDelay="0.00" arrival="199.00" arrivalLane="-gneE5_0" arrivalPos="85.60" arrivalSpeed="14.67" duration="20.00" routeLength="182.33" waitingTime="0.00" waitingCount="0" stopTime="0.00" timeLoss="6.27" rerouteNo="0" devices="tripinfo_179" vType="DEFAULT_VEHTYPE" speedFactor="1.07" vaporized=""/>
    <tripinfo id="66" depart="67.00" departLane="gneE38_0" departPos="5.10" departSpeed="0.00" departDelay="1.00" arrival="201.00" arrivalLane="gneE6_0" arrivalPos="92.80" arrivalSpeed="10.95" duration="134.00" routeLength="690.87" waitingTime="57.00" waitingCount="1" stopTime="0.00" timeLoss="74.41" rerouteNo="0" devices="tripinfo_66" vType="DEFAULT_VEHTYPE" speedFactor="0.85" vaporized=""/>
    <tripinfo id="68" depart="68.00" departLane="-gneE13_0" departPos="5.10" departSpeed="0.00" departDelay="0.00" arrival="201.00" arrivalLane="gneE28_0" arrivalPos="216.45" arrivalSpeed="15.46" duration="133.00" routeLength="798.93" waitingTime="56.00" waitingCount="1" stopTime="0.00" timeLoss="80.61" rerouteNo="0" devices="tripinfo_68" vType="DEFAULT_VEHTYPE" speedFactor="1.17" vaporized=""/>
    <tripinfo id="161" depart="161.00" departLane="gneE3_0" departPos="5.10" departSpeed="0.00" departDelay="0.00" arrival="214.00" arrivalLane="gneE36_0" arrivalPos="292.80" arrivalSpeed="12.96" duration="53.00" routeLength="582.12" waitingTime="0.00" waitingCount="0" stopTime="0.00" timeLoss="9.53" rerouteNo="0" devices="tripinfo_161" vType="DEFAULT_VEHTYPE" speedFactor="0.99" vaporized=""/>
    <tripinfo id="38" depart="38.00" departLane="gneE4_0" departPos="5.10" departSpeed="0.00" departDelay="0.00" arrival="226.00" arrivalLane="-gneE7_0" arrivalPos="92.80" arrivalSpeed="3.58" duration="188.00" routeLength="587.17" waitingTime="102.00" waitingCount="5" stopTime="0.00" timeLoss="139.69" rerouteNo="0" devices="tripinfo_38" vType="DEFAULT_VEHTYPE" speedFactor="0.92" vaporized=""/>
    <tripinfo id="194" depart="194.00" departLane="gneE6_0" departPos="5.10" departSpeed="0.00" departDelay="0.00" arrival="227.00" arrivalLane="gneE23_0" arrivalPos="89.60" arrivalSpeed="6.02" duration="33.00" routeLength="284.60" waitingTime="0.00" waitingCount="0" stopTime="0.00" timeLoss="15.33" rerouteNo="0" devices="tripinfo_194" vType="DEFAULT_VEHTYPE" speedFactor="1.16" vaporized=""/>
    <tripinfo id="97" depart="97.00" departLane="-gneE6_0" departPos="5.10" departSpeed="0.00" departDelay="0.00" arrival="233.00" arrivalLane="gneE34_0" arrivalPos="85.60" arrivalSpeed="13.63" duration="136.00" routeLength="282.33" waitingTime="104.00" waitingCount="1" stopTime="0.00" timeLoss="115.16" rerouteNo="0" devices="tripinfo_97" vType="DEFAULT_VEHTYPE" speedFactor="1.06" vaporized=""/>
    <tripinfo id="215" depart="215.00" departLane="-gneE17_0" departPos="5.10" departSpeed="0.00" departDelay="0.00" arrival="235.00" arrivalLane="-gneE5_0" arrivalPos="85.60" arrivalSpeed="14.13" duration="20.00" routeLength="182.33" waitingTime="0.00" waitingCount="0" stopTime="0.00" timeLoss="6.50" rerouteNo="0" devices="tripinfo_215" vType="DEFAULT_VEHTYPE" speedFactor="1.06" vaporized=""/>
    <tripinfo id="141" depart="144.00" departLane="gneE18_0" departPos="5.10" departSpeed="0.00" departDelay="3.00" arrival="246.00" arrivalLane="-gneE25_0" arrivalPos="92.80" arrivalSpeed="12.07" duration="102.00" routeLength="284.16" waitingTime="63.00" waitingCount="1" stopTime="0.00" timeLoss="78.67" rerouteNo="0" devices="tripinfo_141" vType="DEFAULT_VEHTYPE" speedFactor="0.96" vaporized=""/>
    <tripinfo id="146" depart="147.00" departLane="gneE18_0" departPos="5.10" departSpeed="0.00" departDelay="1.00" arrival="247.00" arrivalLane="-gneE25_0" arrivalPos="92.80" arrivalSpeed="15.07" duration="100.00" routeLength="284.16" waitingTime="62.00" waitingCount="1" stopTime="0.00" timeLoss="79.48" rerouteNo="0" devices="tripinfo_146" vType="DEFAULT_VEHTYPE" speedFactor="1.10" vaporized=""/>
    <tripinfo id="84" depart="84.00" departLane="-gneE25_0" departPos="5.10" departSpeed="0.00" departDelay="0.00" arrival="251.00" arrivalLane="-gneE18_0" arrivalPos="92.80" arrivalSpeed="13.64" duration="167.00" routeLength="766.42" waitingTime="72.00" waitingCount="3" stopTime="0.00" timeLoss="108.15" rerouteNo="0" devices="tripinfo_84" vType="DEFAULT_VEHTYPE" speedFactor="0.99" vaporized=""/>
    <tripinfo id="176" depart="178.00" departLane="gneE6_0" departPos="5.10" departSpeed="0.00" departDelay="2.00" arrival="254.00" arrivalLane="-gneE17_0" arrivalPos="92.80" arrivalSpeed="15.37" duration="76.00" routeLength="469.96" waitingTime="23.00" waitingCount="2" stopTime="0.00" timeLoss="43.74" rerouteNo="0" devices="tripinfo_176" vType="DEFAULT_VEHTYPE" speedFactor="1.12" vaporized=""/>
    <tripinfo id="64" depart="64.00" departLane="gneE38_0" departPos="5.10" departSpeed="0.00" departDelay="0.00" arrival="256.00" arrivalLane="gneE32_0" arrivalPos="219.65" arrivalSpeed="12.09" duration="192.00" routeLength="1210.15" waitingTime="65.00" waitingCount="2" stopTime="0.00" timeLoss="93.22" rerouteNo="0" devices="tripinfo_64" vType="DEFAULT_VEHTYPE" speedFactor="0.90" vaporized=""/>
    <tripinfo id="115" depart="115.00" departLane="-gneE14_0" departPos="5.10" departSpeed="0.00" departDelay="0.00" arrival="258.00" arrivalLane="-gneE20_0" arrivalPos="92.80" arrivalSpeed="13.50" duration="143.00" routeLength="591.49" waitingTime="73.00" waitingCount="2" stopTime="0.00" timeLoss="100.67" rerouteNo="0" devices="tripinfo_115" vType="DEFAULT_VEHTYPE" speedFactor="1.02" vaporized=""/>
    <tripinfo id="67" depart="67.00" departLane="-gneE14_0" departPos="5.10" departSpeed="0.00" departDelay="0.00" arrival="265.00" arrivalLane="-gneE9_0" arrivalPos="89.60" arrivalSpeed="11.08" duration="198.00" routeLength="688.08" waitingTime="120.00" waitingCount="2" stopTime="0.00" timeLoss="137.35" rerouteNo="0" devices="tripinfo_67" vType="DEFAULT_VEHTYPE" speedFactor="0.85" vaporized=""/>
    <tripinfo id="128" depart="146.00" departLane="-gneE13_0" departPos="5.10" departSpeed="0.00" departDelay="18.00" arrival="265.00" arrivalLane="-gneE22_0" arrivalPos="85.60" arrivalSpeed="12.28" duration="119.00" routeLength="476.85" waitingTime="53.00" waitingCount="4" stopTime="0.00" timeLoss="86.76" rerouteNo="0" devices="tripinfo_128" vType="DEFAULT_VEHTYPE" speedFactor="1.12" vaporized=""/>
    <tripinfo id="40" depart="40.00" departLane="gneE11_0" departPos="5.10" departSpeed="0.00" departDelay="0.00" arrival="267.00" arrivalLane="-gneE25_0" arrivalPos="92.80" arrivalSpeed="15.31" duration="227.00" routeLength="1067.97" waitingTime="114.00" waitingCount="3" stopTime="0.00" timeLoss="156.45" rerouteNo="0" devices="tripinfo_40" vType="DEFAULT_VEHTYPE" speedFactor="1.13" vaporized=""/>
    <tripinfo id="112" depart="112.00" departLane="-gneE12_0" departPos="5.10" departSpeed="0.00" departDelay="0.00" arrival="267.00" arrivalLane="gneE14_0" arrivalPos="89.60" arrivalSpeed="13.62" duration="155.00" routeLength="668.38" waitingTime="86.00" waitingCount="2" stopTime="0.00" timeLoss="104.08" rerouteNo="0" devices="tripinfo_112" vType="DEFAULT_VEHTYPE" speedFactor="1.00" vaporized=""/>
    <tripinfo id="136" depart="136.00" departLane="gneE2_0" departPos="5.10" departSpeed="0.00" departDelay="0.00" arrival="271.00" arrivalLane="gneE6_0" arrivalPos="92.80" arrivalSpeed="12.11" duration="135.00" routeLength="287.70" waitingTime="101.00" waitingCount="1" stopTime="0.00" timeLoss="110.87" rerouteNo="0" devices="tripinfo_136" vType="DEFAULT_VEHTYPE" speedFactor="0.89" vaporized=""/>
    <tripinfo id="121" depart="121.00" departLane="gneE1_0" departPos="5.10" departSpeed="0.00" departDelay="0.00" arrival="274.00" arrivalLane="gneE5_0" arrivalPos="85.60" arrivalSpeed="11.18" duration="153.00" routeLength="374.92" waitingTime="100.00" waitingCount="1" stopTime="0.00" timeLoss="118.04" rerouteNo="0" devices="tripinfo_121" vType="DEFAULT_VEHTYPE" speedFactor="0.83" vaporized=""/>
    <tripinfo id="149" depart="149.00" departLane="-gneE13_0" departPos="5.10" departSpeed="0.00" departDelay="0.00" arrival="274.00" arrivalLane="gneE36_0" arrivalPos="292.80" arrivalSpeed="12.39" duration="125.00" routeLength="784.16" waitingTime="39.00" waitingCount="2" stopTime="0.00" timeLoss="61.83" rerouteNo="0" devices="tripinfo_149" vType="DEFAULT_VEHTYPE" speedFactor="0.92" vaporized=""/>
    <tripinfo id="11" depart="11.00" departLane="-gneE32_0" departPos="5.10" departSpeed="0.00" departDelay="0.00" arrival="277.00" arrivalLane="-gneE19_0" arrivalPos="92.80" arrivalSpeed="11.39" duration="266.00" routeLength="1010.21" waitingTime="150.00" waitingCount="2" stopTime="0.00" timeLoss="177.56" rerouteNo="0" devices="tripinfo_11" vType="DEFAULT_VEHTYPE" speedFactor="0.86" vaporized=""/>
    <tripinfo id="178" depart="178.00" departLane="gneE7_0" departPos="5.10" departSpeed="0.00" departDelay="0.00" arrival="280.00" arrivalLane="-gneE25_0" arrivalPos="92.80" arrivalSpeed="13.87" duration="102.00" routeLength="384.16" waitingTime="41.00" waitingCount="3" stopTime="0.00" timeLoss="73.03" rerouteNo="0" devices="tripinfo_178" vType="DEFAULT_VEHTYPE" speedFactor="1.03" vaporized=""/>
    <tripinfo id="110" depart="110.00" departLane="gneE7_0" departPos="5.10" departSpeed="0.00" departDelay="0.00" arrival="287.00" arrivalLane="gneE14_0" arrivalPos="89.60" arrivalSpeed="14.99" duration="177.00" routeLength="580.85" waitingTime="105.00" waitingCount="3" stopTime="0.00" timeLoss="138.42" rerouteNo="0" devices="tripinfo_110" vType="DEFAULT_VEHTYPE" speedFactor="1.15" vaporized=""/>
    <tripinfo id="124" depart="124.00" departLane="gneE2_0" departPos="5.10" departSpeed="0.00" departDelay="0.00" arrival="287.00" arrivalLane="-gneE3_0" arrivalPos="185.60" arrivalSpeed="6.00" duration="163.00" routeLength="480.08" waitingTime="113.00" waitingCount="1" stopTime="0.00" timeLoss="130.03" rerouteNo="0" devices="tripinfo_124" vType="DEFAULT_VEHTYPE" speedFactor="1.09" vaporized=""/>
    <tripinfo id="45" depart="45.00" departLane="-gneE18_0" departPos="5.10" departSpeed="0.00" departDelay="0.00" arrival="290.00" arrivalLane="gneE2_0" arrivalPos="185.60" arrivalSpeed="13.20" duration="245.00" routeLength="865.93" waitingTime="159.00" waitingCount="2" stopTime="0.00" timeLoss="181.16" rerouteNo="0" devices="tripinfo_45" vType="DEFAULT_VEHTYPE" speedFactor="1.01" vaporized=""/>
    <tripinfo id="118" depart="118.00" departLane="gneE38_0" departPos="5.10" departSpeed="0.00" departDelay="0.00" arrival="300.00" arrivalLane="-gneE24_0" arrivalPos="85.60" arrivalSpeed="11.48" duration="182.00" routeLength="683.56" waitingTime="105.00" waitingCount="2" stopTime="0.00" timeLoss="123.48" rerouteNo="0" devices="tripinfo_118" vType="DEFAULT_VEHTYPE" speedFactor="0.89" vaporized=""/>
    <tripinfo id="240" depart="240.00" departLane="-gneE36_0" departPos="5.10" departSpeed="0.00" departDelay="0.00" arrival="300.00" arrivalLane="-gneE0_0" arrivalPos="92.80" arrivalSpeed="12.74" duration="60.00" routeLength="689.32" waitingTime="0.00" waitingCount="0" stopTime="0.00" timeLoss="9.03" rerouteNo="0" devices="tripinfo_240" vType="DEFAULT_VEHTYPE" speedFactor="1.00" vaporized=""/>
    <tripinfo id="125" depart="125.00" departLane="-gneE31_0" departPos="5.10" departSpeed="0.00" departDelay="0.00" arrival="303.00" arrivalLane="gneE28_0" arrivalPos="216.45" arrivalSpeed="13.96" duration="178.00" routeLength="503.77" waitingTime="126.00" waitingCount="1" stopTime="0.00" timeLoss="141.65" rerouteNo="0" devices="tripinfo_125" vType="DEFAULT_VEHTYPE" speedFactor="1.06" vaporized=""/>
    <tripinfo id="134" depart="134.00" departLane="gneE19_0" departPos="5.10" departSpeed="0.00" departDelay="0.00" arrival="303.00" arrivalLane="-gneE0_0" arrivalPos="92.80" arrivalSpeed="12.55" duration="169.00" routeLength="394.48" waitingTime="122.00" waitingCount="1" stopTime="0.00" timeLoss="137.26" rerouteNo="0" devices="tripinfo_134" vType="DEFAULT_VEHTYPE" speedFactor="0.95" vaporized=""/>
    <tripinfo id="28" depart="28.00" departLane="-gneE22_0" departPos="5.10" departSpeed="0.00" departDelay="0.00" arrival="305.00" arrivalLane="gneE26_0" arrivalPos="92.80" arrivalSpeed="13.98" duration="277.00" routeLength="787.27" waitingTime="188.00" waitingCount="3" stopTime="0.00" timeLoss="219.32" rerouteNo="0" devices="tripinfo_28" vType="DEFAULT_VEHTYPE" speedFactor="1.02" vaporized=""/>
    <tripinfo id="218" depart="218.00" departLane="-gneE27_0" departPos="5.10" departSpeed="0.00" departDelay="0.00" arrival="307.00" arrivalLane="gneE33_0" arrivalPos="98.02" arrivalSpeed="14.45" duration="89.00" routeLength="808.51" waitingTime="9.00" waitingCount="1" stopTime="0.00" timeLoss="33.84" rerouteNo="0" devices="tripinfo_218" vType="DEFAULT_VEHTYPE" speedFactor="1.08" vaporized=""/>
    <tripinfo id="133" depart="133.00" departLane="gneE17_0" departPos="5.10" departSpeed="0.00" departDelay="0.00" arrival="310.00" arrivalLane="gneE9_0" arrivalPos="89.60" arrivalSpeed="4.63" duration="177.00" routeLength="766.24" waitingTime="78.00" waitingCount="3" stopTime="0.00" timeLoss="117.94" rerouteNo="0" devices="tripinfo_133" vType="DEFAULT_VEHTYPE" speedFactor="0.97" vaporized=""/>
    <tripinfo id="107" depart="107.00" departLane="gneE7_0" departPos="5.10" departSpeed="0.00" departDelay="0.00" arrival="315.00" arrivalLane="gneE9_0" arrivalPos="89.60" arrivalSpeed="7.76" duration="208.00" routeLength="773.34" waitingTime="111.00" waitingCount="4" stopTime="0.00" timeLoss="151.65" rerouteNo="0" devices="tripinfo_107" vType="DEFAULT_VEHTYPE" speedFactor="1.02" vaporized=""/>
    <tripinfo id="264" depart="264.00" departLane="-gneE10_0" departPos="5.10" departSpeed="0.00" departDelay="0.00" arrival="315.00" arrivalLane="-gneE19_0" arrivalPos="92.80" arrivalSpeed="12.85" duration="51.00" routeLength="290.87" waitingTime="10.00" waitingCount="2" stopTime="0.00" timeLoss="27.14" rerouteNo="0" devices="tripinfo_264" vType="DEFAULT_VEHTYPE" speedFactor="0.94" vaporized=""/>